VARIABLES = "X"
 "Y"
 "Z"
 "z Cell"
 "Layer"
 "Ibound"
 "Initial head"
 "SWF\n Hydraulic Head"
 "Saturation"
 "To STORAGE"
 "To CONSTANT_HEAD"
 "To RECHARGE"
 "To GWF"
 "To FLOW_FACES"
 "Depth"
ZONE
DT=(DOUBLE,DOUBLE,DOUBLE,DOUBLE,DOUBLE,DOUBLE,DOUBLE,DOUBLE,DOUBLE,DOUBLE,DOUBLE,DOUBLE,DOUBLE,DOUBLE,DOUBLE)
                      0                       0                       0      0.0333333015441895                       1                       1      0.0334332995116711      0.0333333127200603   9.99879703158513E-005                       0       -13.7953681945801                       0        13.7953681945801                       0   1.11758708953857E-008 
         1.001001001001                       0       0.100100101591708      0.0778767705500663                       1                       1      0.0779767685212769        0.07874517630777   -0.000768407542727891  -2.85382483876722E-005       -49.3850621225677                       0        7.20288308033913      0.0421748576579546    0.000868408238744593 
         2.002002002002                       0       0.200200203198332       0.177976864683736                       1                       1       0.178076866386451       0.180691311637441    -0.00261444377592955  -9.51001742002245E-005                       0                       0        2.00697474806636        42.1327104616213     0.00271444694391704 
         3.003003003003                       0        0.30030031220333       0.278076958906901                       1                       1        0.27817696547723       0.280742593803205    -0.00256562660899465  -9.58560260981242E-005                       0                       0        1.95706156713588        42.0199750608152     0.00266563005160887 
         4.004004004004                       0       0.400400406336999       0.378177082753396                       1                       1         0.3782770596109       0.380786744671978    -0.00250968016573117  -9.58257419747875E-005                       0                       0        1.79172397470291     0.00473117923831955     0.00260967188990219 
       5.00500500500501                       0       0.500500500619829       0.478277176887065                       1                       1       0.478377153844009        0.48083263104623    -0.00245547077137185  -9.57564999005103E-005                       0                       0        1.64948227915081        -2.2554336741323      0.0025554540815546 
       6.00600600600601                       0       0.600600624227667       0.578377271199727                       1                       1       0.578477267806117       0.580879959019574    -0.00240267163470716  -9.56536752857721E-005                       0                       0        1.52616725657676       -2.26342949852929     0.00250268786203105 
       7.00700700700701                       0       0.700700688946832       0.678477394747901                       1                       1       0.678577371883838       0.680928440403453    -0.00235107112736502  -9.55197581662282E-005                       0                       0        1.41794836726991     -0.0368311528488127     0.00245106538400628 
       8.00800800800801                       0       0.800800812435341        0.77857745952673                       1                       1       0.778677475961559       0.780977896006059    -0.00230041817307639  -9.53639507079127E-005                       0                       0        1.32194865751274        -2.1882582554071     0.00240043656144466 
       9.00900900900901                       0       0.900900877273835       0.878677493280119                       1                       1       0.878777490005837       0.881028076549908    -0.00225057406770485  -9.51870017226676E-005                       0                       0        1.23594553030289       -2.16796393867011     0.00235060313800434 
         10.01001001001                       0        1.00100100123966       0.978767693281412                       1                       1       0.978867690206012       0.981069116541494    -0.00220142425453395  -9.49954943910925E-005                       0                       0        1.16052019769126     -0.0200638311244187     0.00230144292863834 
        11.011011011011                       0        1.10110112520548        1.07886775823923                       1                       1        1.07896777439563        1.08112036255069    -0.00215256446855957  -9.47677207079228E-005                       0                       0        1.08837757621322       -2.06201742361258     0.00225260467138011 
        12.012012012012                       0        1.20120124773936        1.17896788220506                       1                       1        1.17906785906256        1.18117224036514    -0.00210435689404584  -9.45364079305071E-005                       0                       0        1.02473550694841       -2.01857111475489        0.00220439781983 
        13.013013013013                       0        1.30130125392784        1.27906800617088                       1                       1        1.27916798251129        1.28122431829368    -0.00205636547707005  -9.42834284413747E-005                       0                       0       0.964737682331392    -0.00677646284386739     0.00215635185821674 
        14.014014014014                       0        1.40140137789366        1.37916812846611                       1                       1        1.37926806725778        1.38127667214976    -0.00200862347310416   -9.4020951302699E-005                       0                       0       0.909028461387565       -1.95245196622811     0.00210858223091874 
        15.015015015015                       0        1.50150150185949        1.47926813489324                       1                       1        1.47936819062696        1.48132910563781    -0.00196093273196683  -9.37436248400823E-005                       0                       0       0.857068788002919       -1.88955338700517     0.00206093168006399 
        16.016016016016                       0        1.60160162582531        1.57936825885906                       1                       1        1.57946827481658        1.58138161684857    -0.00191333335661943  -9.34512336589597E-005                       0                       0       0.808364260562627     0.00375697658107059     0.00201335854831154 
        17.017017017017                       0        1.70170174776255        1.67946838282489                       1                       1        1.67956835968239        1.68143408756714    -0.00186571350876176  -9.31442228770236E-005                       0                       0       0.762534764972893        -1.8567304181623     0.00196574440305667 
        18.018018018018                       0        1.80180175454767        1.77956850679071                       1                       1        1.77966848293224        1.78148647722181    -0.00181800397756221  -9.28225882262951E-005                       0                       0       0.719244378644067       -1.77729664478932     0.00191801020493815 
        19.019019019019                       0        1.90190187851349        1.87966862848929                       1                       1        1.87976856787761        1.88153870534531    -0.00177017177479521  -9.24851900325283E-005                       0                       0       0.678206472783475      0.0121545597518085     0.00187011579789494 
         20.02002002002                       0        2.00200200009274        1.97976863551307                       1                       1        1.97986869184343         1.9815906571435    -0.00172199656723691  -9.21389623391677E-005                       0                       0        0.63919955446277       -1.77163535402264     0.00182202159162812 
        21.021021021021                       0        2.10210200974175        2.07986875697299                       1                       1        2.07996881497396        2.08164244299536    -0.00167360011412687  -9.17765789633701E-005                       0                       0       0.601978378073947       -1.67802301660791     0.00177368431459754 
        22.022022022022                       0        2.20220224778573        2.17996876686066                       1                       1        2.18006889916357        2.18169375455574    -0.00162483537129929  -9.14024975544352E-005                       0                       0       0.566407709567993      0.0188688418846919     0.00172491001118594 
        23.023023023023                       0        2.30230225791206        2.28006900466598                       1                       1        2.28016898335319        2.28174473843974    -0.00157569898139377  -9.10129367872368E-005                       0                       0       0.532266196207798       -1.69506889651289     0.00167573198106968 
        24.024024024024                       0        2.40240249547872        2.38016901503096                       1                       1        2.38026906754281        2.38179500945457    -0.00152595901688854   -9.0606542823832E-005                       0                       0       0.499486295608906       -1.58925839444181     0.00162591873045854 
        25.025025025025                       0        2.50250250011593        2.48026925235897                       1                       1        2.48036915372124        2.48184472105684    -0.00147560180106142  -9.01856991412068E-005                       0                       0       0.467866668472061      0.0241908524328335     0.00157554614407992 
        26.026026026026                       0        2.60260251095822        2.58036925699618                       1                       1         2.5804693153949         2.5818937893983    -0.00142446069545922  -8.97533606375749E-005                       0                       0       0.437349530629886       -1.62552200129003     0.00152453033274992 
        27.027027027027                       0        2.70270274780892        2.68046926807713                       1                       1        2.68056939958452        2.68194198178815     -0.0013725830290282  -8.92994705265648E-005                       0                       0       0.407810693925565       -1.50913561571826     0.00147263634937337 
        28.028028028028                       0        2.80280275912853        2.78056950468917                       1                       1        2.78066948377414          2.781989291544    -0.00131984406273158   -8.8832755635924E-005                       0                       0       0.379126185550664      0.0284044980445929     0.00141978466398995 
        29.029029029029                       0        2.90290299550191        2.88066951624743                       1                       1        2.88076956796376        2.88203548414531    -0.00126595743022105  -8.83497965496202E-005                       0                       0       0.351272601523636       -1.56213348612691     0.00136589300138195 
         30.03003003003                       0        3.00300300013912        2.98076975238216                       1                       1        2.98086965453995        2.98208047510745    -0.00121083565709369  -8.78501808905561E-005                       0                       0       0.324094780035563       -1.43850152795618     0.00131079981274142 
        31.031031031031                       0         3.1031030121747        3.08086975701936                       1                       1        3.08096981581585        3.08212402776197    -0.00115422024590473  -8.73373366762716E-005                       0                       0       0.297573185201721      0.0298846565885497     0.00125426831408157 
        32.032032032032                       0        3.20320324783211         3.1809697692936                       1                       1        3.18106990000547        3.18216598014017    -0.00109603679223091  -8.68105551114775E-005                       0                       0       0.271611697501964       -1.49933540005663     0.00119613391814289 
        33.033033033033                       0          3.303303260345        3.28107000471235                       1                       1        3.28116998419509        3.28220607998135    -0.00103599964701631  -8.62748675172225E-005                       0                       0        0.24611083630685       -1.36830892935172     0.00113607260752357 
        34.034034034034                       0         3.4034034955251        3.38117001746391                       1                       1         3.3812700683847        3.38224370311728   -0.000973605730012743   -8.5733984024953E-005                       0                       0       0.221069280569021      0.0319480017737432     0.00107361162624399 
        35.035035035035                       0         3.5035035001623        3.48127025240534                       1                       1        3.48137015535866        3.48227859927608   -0.000908465790238373  -8.52026711554448E-005                       0                       0       0.196354004345936       -1.44524481553494     0.00100842352113542 
        36.036036036036                       0        3.60360351339117        3.58137025704255                       1                       1         3.5814703162368        3.58231019902158   -0.000839889446146193  -8.47086942979825E-005                       0                       0       0.171973231944952       -1.30727342943529     0.00093993909713636 
        37.037037037037                       0        3.70370374785529        3.68147027051007                       1                       1        3.68157040042642        3.68233760492301   -0.000767145918130323  -8.42981878380625E-005                       0                       0       0.147876309023963      0.0338520944854344     0.00086725790148463 
        38.038038038038                       0        3.80380376156147        3.78157050473554                       1                       1        3.78167048461603        3.78235936101214   -0.000688896335909702  -8.40707269870817E-005                       0                       0       0.124058112725839       -1.39366623398301    0.000788853235682146 
        39.039039039039                       0        3.90390399554828        3.88167051868038                       1                       1        3.88177056880565        3.88237339073235   -0.000602788646448845  -8.42603590395124E-005                       0                       0       0.100722787467328       -1.24971484851551    0.000702798802841891 
         40.04004004004                       0        4.00400400018549        3.98177074288224                       1                       1        3.98187065617737        3.98237533588429   -0.000504673797287085   -8.5056499419925E-005                       0                       0      0.0781994875188585      0.0352090422535166     0.00060466292861465 
        41.041041041041                       0        4.10410400482269        4.08187053821705                       1                       1         4.0819708133961        4.08235652947132   -0.000385830434323806  -7.84194758102763E-005                       0                       0      0.0508563243173384        -1.3449684438365    0.000485845354742961 
        42.042042042042                       0        4.20420402950711        4.18197100012152                       1                       1        4.18207081803331        4.18232881652939   -0.000258092999616679  -5.27785562519931E-005                       0                       0      -0.110333159267604       -1.19589148245535    0.000357968661484557 
        43.043043043043                       0        4.30430449093426        4.28207100475873                       1                       1        4.28217082951202        4.28233171233265    -0.00016085724162887  -2.95766969822973E-005                       0                       0      -0.175661204351081      0.0360823737250449    0.000260700722927348 
        44.044044044044                       0        4.40440449557147        4.38217100939593                       1                       1        4.38227100025466        4.38234837659009  -7.71772994717166E-005  -1.66896864675452E-005                       0                       0      -0.218585798834458       -1.29875762883448    0.000177208243909915 
        45.045045045045                       0        4.50450450020867        4.48227101403314                       1                       1        4.48237130878208        4.48238413469927  -1.28748872851032E-005  -6.82142246643691E-006                       0                       0      -0.240424908809476       -1.14532734180714    0.000112961722733998 
       46.0460460460461                       0        4.60460450484588        4.58237104062681                       1                       1        4.58247131341929        4.58244500177719   2.61910896172094E-005  -2.55963382204923E-006                       0                       0      -0.247006052333711      0.0365413402293828   7.38168423599749E-005 
       47.0470470470471                       0        4.70470453191687        4.68247150014471                       1                       1        4.68257131805649        4.68252283229325   4.84850712512353E-005  -1.06497513055858E-006                       0                       0      -0.248914074059483       -1.25465418141327   5.14836175499441E-005 
        48.048048048048                       0        4.80480499095745        4.78257150478191                       1                       1        4.78267133033073        4.78260939830058   6.18768879774705E-005  -5.00691004208239E-007                       0                       0      -0.249546980640074       -1.09758740597898     3.788588279409E-005 
        49.049049049049                       0        4.90490499559465        4.88267150941912                       1                       1        4.88277150186889        4.88270093601546   7.05932754225036E-005  -2.60908265467016E-007                       0                       0      -0.249786313301251      0.0366316812214275   2.92676505961464E-005 
       50.0500500500501                       0        5.00500500023186        4.98277151405632                       1                       1        4.98287180880527          4.982794982177   7.68028474945215E-005  -1.47641503242421E-007                       0                       0      -0.249887797318978       -1.21238968409735   2.33091743523202E-005 
       51.0510510510511                       0        5.10510500486907        5.08287154303657                       1                       1        5.08297181344247        5.08289076401307   8.09915802531034E-005  -8.92485973333231E-008                       0                       0      -0.249937858563047       -1.05234489402732   1.90782588974757E-005 
       52.0520520520521                       0        5.20520503432662        5.18297200016789                       1                       1        5.18307181807968        5.18298793785724   8.39264829020635E-005  -5.69158700644846E-008                       0                       0      -0.249963837536844       0.036403557997284   1.60883616160105E-005 
        53.053053053053                       0        5.30530549098063         5.2830720048051                       1                       1        5.28317183114944        5.28308574032457   8.61271259665353E-005  -3.79291145168707E-008                       0                       0      -0.249977890137318       -1.17170856617115   1.37270869196834E-005 
       54.0540540540541                       0        5.40540549561784         5.3831720094423                       1                       1        5.38327200348313        5.38318400340037   8.79769035859394E-005  -2.62206820020191E-008                       0                       0      -0.249985937868153       -1.00930229393211   1.18350123336092E-005 
       55.0550550550551                       0        5.50550550025505        5.48327201407951                       1                       1        5.48337230882845        5.48328244324163   8.97365784459041E-005  -1.86969474344672E-008                       0                       0       -0.24999088881252      0.0358941641735301   1.02702161339576E-005 
       56.0560560560561                       0        5.60560550489225        5.58337204544632                       1                       1        5.58347231346566        5.58338135196481   9.09103742477821E-005  -1.36896380431847E-008                       0                       0      -0.249994050822021        -1.1323961455861   9.16539280748563E-006 
       57.0570570570571                       0        5.70570553673638        5.68347250019108                       1                       1        5.68357231810286        5.68348057014687   9.17250453657634E-005  -1.02549357118621E-008                       0                       0      -0.249996165449436      -0.968215006846445   8.21983282846602E-006 
       58.0580580580581                       0        5.80580599100382        5.78357250482828                       1                       1        5.78367233196815        5.78357993836478   9.23878113737406E-005  -7.83636366904109E-009                       0                       0      -0.249997622024269      0.0351300155237423    7.4243085556055E-006 
       59.0590590590591                       0        5.90590599564103        5.88367250946549                       1                       1        5.88377250509736        5.88367930658269    9.3092815160524E-005  -6.09373703582691E-009                       0                       0      -0.249998654107432       -1.09427356433582    6.6381714852789E-006 
       60.0600600600601                       0        6.00600600027823         5.9837725141027                       1                       1        5.98387280885164        5.98377868434688    9.3977480614453E-005   -4.8124277273675E-009                       0                       0      -0.249999402297868      -0.928883412220815   6.01129862046149E-006 
       61.0610610610611                       0        6.10610600491544        6.08387254785608                       1                       1        6.08397281348884        6.08387822137501   9.44720635832192E-005  -3.85318311199272E-009                       0                       0      -0.249999946913681      0.0341321584340693   5.53398414778569E-006 
       62.0620620620621                       0        6.20620603914614        6.18397300021427                       1                       1        6.18407281812605        6.18397791766707   9.47508707966786E-005  -3.12338933821685E-009                       0                       0      -0.250000372081548        -1.0571443674204   5.06653416480433E-006 
       63.0630630630631                       0        6.30630649102701        6.28407300485147                       1                       1        6.28417283278686        6.28407777322305   9.49848963992318E-005  -2.56007063996315E-009                       0                       0      -0.250000680933844      -0.891080598573436   4.75834798766431E-006 
       64.0640640640641                       0        6.40640649566421        6.38417300948868                       1                       1         6.3842730067116        6.38417774731213   9.53426821879678E-005  -2.11951337339725E-009                       0                       0      -0.250000922017428      0.0329312937713854    4.5788778879614E-006 
       65.0650650650651                       0        6.50650650030142        6.48427301412588                       1                       1        6.48437330887482        6.48427728497668   9.59392055301942E-005  -1.77085214708414E-009                       0                       0      -0.250001122315486       -1.02090195333476   4.11190521899752E-006 
       66.0660660660661                       0        6.60660650493862        6.58437305026584                       1                       1        6.58447331351203        6.58437700290699   9.61951313160329E-005  -1.49191563874378E-009                       0                       0      -0.250001269507337      -0.854702125679155     3.814697265625E-006 
       67.0670670670671                       0         6.7067065415559        6.68447350023745                       1                       1        6.68457331814924        6.68447714532897   9.62746368483519E-005  -1.26653633845458E-009                       0                       0      -0.250001387503452      0.0315296362748603   3.79337722426191E-006 
       68.0680680680681                       0        6.80680699105019        6.78457350487466                       1                       1        6.78467333360557        6.78457700168048   9.63410512553499E-005  -1.08276588325611E-009                       0                       0       -0.25000148491538      -0.985345835999166   3.48598676940786E-006 
       69.0690690690691                       0         6.9069069956874        6.88467350951186                       1                       1        6.88477350832583        6.88467699533946   9.65570225025522E-005  -9.31661665399625E-010                       0                       0      -0.250001554523741      -0.819524049042936    3.3268818693155E-006 
       70.0700700700701                       0        7.00700700032461        6.98477351414907                       1                       1        6.98487380889801         6.9847768297345    9.7028978597821E-005  -8.06453204479255E-010                       0                       0      -0.250001622043851      0.0299541153906147   3.15663964214877E-006 
       71.0710710710711                       0        7.10710700496181         7.0848735526756                       1                       1        7.08497381353521        7.08487655005138   9.71779705814254E-005   -7.0195369327726E-010                       0                       0      -0.250001661820057      -0.950433851998769   2.86102294921875E-006 
       72.0720720720721                       0        7.20720704396566        7.18497400026064                       1                       1        7.18507381817242        7.18497670233787   9.71653252244331E-005  -6.14151838660813E-010                       0                       0       -0.25000170016432      -0.785510083218592    2.8495673964121E-006 
       73.0730730730731                       0        7.30730749107338        7.28507400489784                       1                       1        7.28517383442428        7.28507669536042   9.71520874122135E-005  -5.39920444402443E-010                       0                       0      -0.250001720052423      0.0282064768167801   2.67884785522789E-006 
       74.0740740740741                       0        7.40740749571058        7.38517400953505                       1                       1        7.38527400994006        7.38517655266656   9.72990621201821E-005  -4.76793576842382E-010                       0                       0      -0.250001739204666      -0.915953718585732   2.38418579101563E-006 
       75.0750750750751                       0        7.50750750034779        7.48527401417225                       1                       1         7.4853743089212        7.48527655730376   9.77071977613887E-005  -4.22821680654204E-010                       0                       0      -0.250001749894521      -0.752444506884813   2.38418579101563E-006 
       76.0760760760761                       0          7.607607504985        7.58537405508536                       1                       1         7.5854743135584        7.58537657403294   9.78002921168649E-005  -3.76441337681616E-010                       0                       0      -0.250001769026876      0.0263000758123018   2.38418579101563E-006 
       77.0770770770771                       0        7.70770754637542        7.68547450028382                       1                       1        7.68557431819561        7.68547672552389    9.7738655006041E-005  -3.36392915080587E-010                       0                       0      -0.250001778970928      -0.881870547254204   2.37193471370851E-006 
       78.0780780780781                       0        7.80780799109657        7.78557450492103                       1                       1        7.78567433524299        7.78557671775092   9.76824870507174E-005  -3.01654781734187E-010                       0                       0      -0.250001787363707      -0.720287300086952   2.20041964916185E-006 
       79.0790790790791                       0        7.90790799573377        7.88567454726608                       1                       1        7.88577449898502        7.88567658842187   9.77667475220888E-005  -2.71396025800656E-010                       0                       0      -0.250001776634076      0.0242479182419314    1.9073486328125E-006 
       80.0800800800801                       0        8.00800803855613        7.98577495284744                       1                       1        7.98587464999866        7.98577673943551   9.78453371868702E-005  -2.44932579010644E-010                       0                       0      -0.250001757541497      -0.848041734895907    1.9073486328125E-006 
       81.0810810810811                       0        8.10810844318287        8.08587455749512                       1                       1        8.08597466752336        8.08587675696021   9.79187834755148E-005  -2.21700376525493E-010                       0                       0      -0.250001749208382      -0.688926439027529    1.9073486328125E-006 