TITLE     = "TMPLT"
VARIABLES = "X"
ZONE T="TMPLT"
 STRANDID=0, SOLUTIONTIME=0
 Nodes=1372, Elements=2651, ZONETYPE=FETriangle
 DATAPACKING=POINT
 FACENEIGHBORCONNECTIONS=7862
 FACENEIGHBORMODE=LOCALONETOONE
 FEFACENEIGHBORSCOMPLETE=YES
 DT=(SINGLE )
 1.614036798E+000
 7.254949808E-001
 1.302383244E-001
 2.075994968E+000
 1.325209260E+000
 2.139716446E-001
 1.798110604E+000
 1.428839564E+000
 2.787773132E+000
 2.574212313E+000
 3.114715338E+000
 1.972084641E+000
 3.654301882E+000
 3.101269007E+000
 3.251141787E+000
 4.015276432E+000
 3.709161282E+000
 4.019968033E+000
 4.614291668E+000
 5.131593704E+000
 4.213311195E+000
 4.198077679E+000
 5.073443890E+000
 5.371054173E+000
 4.990217686E+000
 4.906589508E+000
 5.519887924E+000
 5.535138130E+000
 6.172957420E+000
 6.345995426E+000
 5.264420033E+000
 5.553855419E+000
 6.790614128E+000
 6.801763535E+000
 6.568638325E+000
 6.102260113E+000
 5.848345757E+000
 5.890356541E+000
 6.071747303E+000
 7.008561134E+000
 7.402819157E+000
 7.207933426E+000
 7.599533081E+000
 7.739143848E+000
 7.222382069E+000
 6.102260113E+000
 7.183835506E+000
 8.509145737E+000
 7.915484905E+000
 8.494256020E+000
 7.230717182E+000
 6.635430813E+000
 6.528796673E+000
 6.650664330E+000
 8.495774269E+000
 9.285750389E+000
 8.710861206E+000
 9.046409607E+000
 8.462011337E+000
 7.884460926E+000
 6.970567226E+000
 7.721727848E+000
 8.493912697E+000
 9.925857544E+000
 1.020006371E+001
 9.122759819E+000
 1.033604240E+001
 1.058558273E+001
 7.703723431E+000
 7.049979687E+000
 7.091990471E+000
 7.381081581E+000
 9.985379219E+000
 9.921262741E+000
 1.121105766E+001
 1.020006657E+001
 1.056943703E+001
 9.936120987E+000
 9.150906563E+000
 8.573355675E+000
 8.186027527E+000
 7.899807930E+000
 8.570079803E+000
 9.545021057E+000
 1.033716106E+001
 1.128163528E+001
 1.165559101E+001
 1.197486401E+001
 1.257729053E+001
 8.005289078E+000
 7.522985458E+000
 7.812076569E+000
 1.113746452E+001
 1.134951878E+001
 1.219209099E+001
 1.316835594E+001
 1.174129295E+001
 1.154060364E+001
 1.108826065E+001
 1.058394337E+001
 1.055789375E+001
 9.910072327E+000
 9.262250900E+000
 8.874921799E+000
 8.487593651E+000
 8.463445663E+000
 8.294380188E+000
 9.027083397E+000
 9.402770042E+000
 9.883180618E+000
 1.065507793E+001
 1.120546818E+001
 1.216517639E+001
 1.285463524E+001
 1.318131542E+001
 1.363778496E+001
 1.456900024E+001
 1.243476772E+001
 1.287386990E+001
 1.329393005E+001
 1.455854511E+001
 1.512565422E+001
 1.336660957E+001
 1.235899544E+001
 1.192872524E+001
 1.156652927E+001
 1.106221199E+001
 1.096965599E+001
 1.048735237E+001
 9.839529991E+000
 9.357226372E+000
 9.452200890E+000
 8.969897270E+000
 8.845443726E+000
 8.737648010E+000
 9.203292847E+000
 9.683704376E+000
 1.016411495E+001
 1.068390369E+001
 1.117486668E+001
 1.180141068E+001
 1.248507786E+001
 1.314011669E+001
 1.432915592E+001
 1.470798683E+001
 1.509113503E+001
 1.656070709E+001
 1.388822079E+001
 1.442842770E+001
 1.613257027E+001
 1.541410923E+001
 1.708559990E+001
 1.467869568E+001
 1.414552498E+001
 1.324675083E+001
 1.306252956E+001
 1.250304222E+001
 1.214084625E+001
 1.195627689E+001
 1.147397327E+001
 1.138141727E+001
 1.089911270E+001
 1.041680908E+001
 9.934505463E+000
 9.808157921E+000
 9.327747345E+000
 1.029046154E+001
 1.081025124E+001
 1.120369339E+001
 1.183023739E+001
 1.314383221E+001
 1.245678139E+001
 1.397795677E+001
 1.426739311E+001
 1.545667553E+001
 1.586453819E+001
 1.624358559E+001
 1.637821388E+001
 1.801610565E+001
 1.855241776E+001
 1.598423481E+001
 1.583643913E+001
 1.760007668E+001
 1.711609650E+001
 1.905546379E+001
 1.502906609E+001
 1.466346264E+001
 1.397795677E+001
 1.383413887E+001
 1.327465057E+001
 1.271516323E+001
 1.253059387E+001
 1.234602547E+001
 1.186372089E+001
 1.191909885E+001
 1.129255486E+001
 1.307458019E+001
 1.379515553E+001
 1.240140343E+001
 1.289373112E+001
 1.437409878E+001
 1.498621845E+001
 1.601923943E+001
 1.658287811E+001
 1.740635109E+001
 1.771681404E+001
 1.925129890E+001
 1.966589546E+001
 2.054412460E+001
 1.766445351E+001
 1.694848061E+001
 1.653717804E+001
 1.579073906E+001
 1.860562515E+001
 1.879393768E+001
 2.014335823E+001
 2.102532768E+001
 1.525174522E+001
 1.454294205E+001
 1.407513428E+001
 1.358241081E+001
 1.302292347E+001
 1.283835411E+001
 1.351152992E+001
 1.369237900E+001
 1.333068180E+001
 1.483982372E+001
 1.494782066E+001
 1.426610088E+001
 1.550761700E+001
 1.713128281E+001
 1.622896385E+001
 1.778632164E+001
 1.891470909E+001
 2.042692375E+001
 2.077045250E+001
 2.111246490E+001
 2.253583336E+001
 1.908731461E+001
 1.866986275E+001
 1.784950256E+001
 1.729092979E+001
 1.673235512E+001
 1.599205017E+001
 2.027546692E+001
 2.195146179E+001
 2.144013786E+001
 2.299519157E+001
 1.576938534E+001
 1.527666092E+001
 1.478393745E+001
 1.431612968E+001
 1.382340622E+001
 1.400425434E+001
 1.507070065E+001
 1.457797718E+001
 1.539962006E+001
 1.595941544E+001
 1.818239021E+001
 1.765285683E+001
 1.690645027E+001
 1.663690186E+001
 1.886789703E+001
 1.987330437E+001
 2.078731155E+001
 2.195274925E+001
 2.228600121E+001
 2.238155365E+001
 2.402003479E+001
 2.452754211E+001
 2.065069389E+001
 1.961433601E+001
 1.921349716E+001
 1.841713905E+001
 1.795447731E+001
 1.805945396E+001
 1.739590454E+001
 1.700167084E+001
 1.650968933E+001
 2.184963989E+001
 2.349921227E+001
 2.303075409E+001
 2.496509361E+001
 1.628702545E+001
 1.579430103E+001
 1.530157661E+001
 1.480885315E+001
 1.563049603E+001
 1.612322044E+001
 1.912686539E+001
 1.835518646E+001
 1.801671982E+001
 1.731438828E+001
 1.680070686E+001
 2.020844078E+001
 2.093964767E+001
 2.173178673E+001
 2.200598907E+001
 2.313015938E+001
 2.347676849E+001
 2.375105286E+001
 2.529591560E+001
 2.567637444E+001
 2.651925087E+001
 2.220790863E+001
 2.171655273E+001
 2.090917969E+001
 2.036077690E+001
 2.031608009E+001
 1.973328781E+001
 1.950456238E+001
 1.898477364E+001
 1.852211380E+001
 1.815462494E+001
 1.766522026E+001
 1.727098465E+001
 1.677900505E+001
 2.337356377E+001
 2.452364159E+001
 2.474801064E+001
 2.572647476E+001
 2.695155334E+001
 1.966724586E+001
 1.917998123E+001
 1.871904945E+001
 1.848442268E+001
 1.778209114E+001
 1.729268646E+001
 2.022641182E+001
 2.160991859E+001
 2.093871880E+001
 2.247822571E+001
 2.276766205E+001
 2.424530792E+001
 2.466580009E+001
 2.499119759E+001
 2.652722740E+001
 2.682892418E+001
 2.713241386E+001
 2.851095963E+001
 2.376901054E+001
 2.310669327E+001
 2.234572983E+001
 2.183542061E+001
 2.118993950E+001
 2.060714531E+001
 2.002435112E+001
 1.959609413E+001
 1.910668945E+001
 1.861728477E+001
 1.824979591E+001
 1.776039124E+001
 2.465661049E+001
 2.577316666E+001
 2.614193153E+001
 2.579911995E+001
 2.672702789E+001
 2.788102722E+001
 2.893801308E+001
 1.969357681E+001
 1.920631218E+001
 1.897382736E+001
 1.873920059E+001
 2.025274467E+001
 2.152071381E+001
 2.198537254E+001
 2.081191063E+001
 2.127656937E+001
 2.363596916E+001
 2.319821358E+001
 2.248153496E+001
 2.482417870E+001
 2.549445152E+001
 2.620860291E+001
 2.755096626E+001
 2.805868721E+001
 2.834048271E+001
 2.838950348E+001
 3.002088165E+001
 3.050266647E+001
 2.530473137E+001
 2.458044243E+001
 2.385770226E+001
 2.323191071E+001
 2.248090172E+001
 2.232296944E+001
 2.167748833E+001
 2.118808365E+001
 2.060528946E+001
 2.011588478E+001
 1.971801186E+001
 1.922860527E+001
 2.726197243E+001
 2.778206444E+001
 2.703302956E+001
 2.638354111E+001
 2.890780449E+001
 2.973516464E+001
 3.092447281E+001
 1.995049667E+001
 1.946109200E+001
 2.050966454E+001
 2.174123001E+001
 2.223739243E+001
 2.099906921E+001
 2.146372795E+001
 2.371012688E+001
 2.434804916E+001
 2.324546623E+001
 2.273355484E+001
 2.523339081E+001
 2.592098618E+001
 2.657602692E+001
 2.756620026E+001
 2.875440979E+001
 2.927920151E+001
 2.956569099E+001
 2.978995323E+001
 3.132180595E+001
 3.167495346E+001
 3.249437714E+001
 2.594374084E+001
 2.532453156E+001
 2.522224045E+001
 2.460257912E+001
 2.398291969E+001
 2.356639290E+001
 2.281538391E+001
 2.265745163E+001
 2.216503716E+001
 2.167563248E+001
 2.118622780E+001
 2.069682121E+001
 2.020741653E+001
 2.932967758E+001
 2.851067543E+001
 2.779234314E+001
 2.705621338E+001
 2.684692955E+001
 3.042031670E+001
 3.053748131E+001
 3.179821777E+001
 3.291093445E+001
 2.195313454E+001
 2.244929695E+001
 2.375738144E+001
 2.439530373E+001
 2.503322601E+001
 2.345362282E+001
 2.294170952E+001
 2.574009895E+001
 2.594026375E+001
 2.689121819E+001
 2.670149612E+001
 2.776423645E+001
 2.977505112E+001
 2.890674591E+001
 3.077831841E+001
 3.105419731E+001
 3.257804108E+001
 3.285700226E+001
 3.313945770E+001
 3.448608398E+001
 2.646065712E+001
 2.584144783E+001
 2.566360283E+001
 2.517108536E+001
 2.455142593E+001
 2.405891037E+001
 2.364238358E+001
 2.314986610E+001
 3.088453865E+001
 2.975545311E+001
 2.944986916E+001
 2.869263649E+001
 2.833809471E+001
 2.747206306E+001
 2.708579063E+001
 3.210733032E+001
 3.341447067E+001
 3.489933777E+001
 2.394614029E+001
 2.458406258E+001
 2.507657814E+001
 2.578345299E+001
 2.644697380E+001
 2.744427299E+001
 2.718974876E+001
 2.809937286E+001
 2.980551910E+001
 3.076522636E+001
 3.053672409E+001
 2.876964378E+001
 2.925711441E+001
 3.198673439E+001
 3.229712296E+001
 3.382884216E+001
 3.411600113E+001
 3.437706375E+001
 3.439582062E+001
 3.602906418E+001
 3.647779465E+001
 2.677557373E+001
 2.628281021E+001
 2.610496521E+001
 2.561244965E+001
 2.511993217E+001
 2.462741661E+001
 2.413489914E+001
 3.238569641E+001
 3.123184776E+001
 3.071281433E+001
 2.997205925E+001
 2.965805244E+001
 2.904884148E+001
 2.835078621E+001
 2.771092606E+001
 2.740070915E+001
 3.363183594E+001
 3.502603912E+001
 3.626725006E+001
 3.689069748E+001
 2.627596855E+001
 2.676873207E+001
 2.793252373E+001
 2.751150894E+001
 2.835354424E+001
 2.989691925E+001
 3.148119926E+001
 3.132886505E+001
 3.050625801E+001
 2.877456665E+001
 2.931382561E+001
 3.351438522E+001
 3.236473846E+001
 3.505055237E+001
 3.537096786E+001
 3.564064026E+001
 3.583383560E+001
 3.736684036E+001
 3.768085098E+001
 3.846950150E+001
 2.709049034E+001
 2.659772873E+001
 3.383573914E+001
 3.262795639E+001
 3.204773712E+001
 3.134868813E+001
 3.082453728E+001
 3.018866348E+001
 3.011940765E+001
 2.959721756E+001
 2.910394096E+001
 2.838726234E+001
 2.789398575E+001
 2.758376884E+001
 3.506314468E+001
 3.772203445E+001
 3.656191254E+001
 3.888205719E+001
 2.800478363E+001
 2.842580605E+001
 3.034611702E+001
 2.985308647E+001
 3.215147018E+001
 3.160275841E+001
 3.108661461E+001
 3.083914757E+001
 2.891908264E+001
 2.945834160E+001
 3.346154785E+001
 3.471545792E+001
 3.292837906E+001
 3.621663666E+001
 3.657509613E+001
 3.689177322E+001
 3.713993454E+001
 3.865922165E+001
 3.889397812E+001
 3.914207077E+001
 4.046120834E+001
 3.532367325E+001
 3.500134277E+001
 3.380830383E+001
 3.334355927E+001
 3.278499985E+001
 3.219767380E+001
 3.146041298E+001
 3.124855995E+001
 3.061268425E+001
 3.054342842E+001
 3.005015182E+001
 2.955687523E+001
 2.906359863E+001
 2.857032013E+001
 2.807704544E+001
 3.936954498E+001
 3.808294296E+001
 3.683433151E+001
 4.087341309E+001
 3.044465065E+001
 2.995161819E+001
 3.241253662E+001
 3.135529327E+001
 3.187143707E+001
 3.093792725E+001
 3.384238434E+001
 3.478685760E+001
 3.547236633E+001
 3.283592987E+001
 3.346044540E+001
 3.626450348E+001
 3.691954422E+001
 3.774441528E+001
 3.811023712E+001
 3.841927338E+001
 3.993889236E+001
 4.018194580E+001
 4.039909744E+001
 4.038529587E+001
 4.201052475E+001
 4.245291901E+001
 3.619437790E+001
 3.578848648E+001
 3.519456482E+001
 3.472473145E+001
 3.406717682E+001
 3.365855026E+001
 3.293493271E+001
 3.247886658E+001
 3.174160767E+001
 3.152975464E+001
 3.103670692E+001
 4.100466156E+001
 3.961080933E+001
 3.834633636E+001
 3.713357925E+001
 4.225116730E+001
 4.286477280E+001
 3.271821976E+001
 3.229483032E+001
 3.145407295E+001
 3.194711876E+001
 3.416064072E+001
 3.484915924E+001
 3.557846832E+001
 3.334273911E+001
 3.396725845E+001
 3.630479050E+001
 3.780308533E+001
 3.704135513E+001
 3.875814438E+001
 3.926781464E+001
 3.963893509E+001
 4.118562698E+001
 4.146550369E+001
 4.168269730E+001
 4.183453369E+001
 4.335914993E+001
 4.366065979E+001
 4.444462585E+001
 3.679872513E+001
 3.636826324E+001
 3.590161133E+001
 3.532183456E+001
 3.485200119E+001
 3.438216782E+001
 3.418751907E+001
 3.346390152E+001
 3.297138214E+001
 3.300783539E+001
 3.251531982E+001
 3.202280045E+001
 4.105275726E+001
 3.969203186E+001
 3.858045578E+001
 3.799793243E+001
 3.725373840E+001
 4.369492722E+001
 4.254195023E+001
 4.485388565E+001
 3.286302948E+001
 3.237051010E+001
 3.465577698E+001
 3.534429932E+001
 3.607062149E+001
 3.348754501E+001
 3.398006439E+001
 3.447257996E+001
 3.679694748E+001
 3.777574539E+001
 3.853216934E+001
 3.753133392E+001
 3.984077072E+001
 3.907530975E+001
 4.033193970E+001
 4.083634567E+001
 4.205321884E+001
 4.271783447E+001
 4.296586609E+001
 4.316045761E+001
 4.466613770E+001
 4.488025665E+001
 4.512155914E+001
 4.643633652E+001
 3.693640137E+001
 3.648139191E+001
 3.622216415E+001
 3.564238358E+001
 3.514986801E+001
 3.468003464E+001
 3.448538589E+001
 3.399286652E+001
 3.350035095E+001
 4.131274033E+001
 4.012886810E+001
 3.950252533E+001
 3.875591660E+001
 3.814939499E+001
 3.739141083E+001
 4.531704712E+001
 4.403651810E+001
 4.280060577E+001
 4.684045410E+001
 3.516109848E+001
 3.565361786E+001
 3.637994003E+001
 3.497790146E+001
 3.737361145E+001
 3.687588501E+001
 3.826572418E+001
 3.880886459E+001
 3.810800171E+001
 4.043469238E+001
 3.994592667E+001
 3.935200882E+001
 4.111962891E+001
 4.165189362E+001
 4.333282852E+001
 4.240358734E+001
 4.423862839E+001
 4.446078873E+001
 4.597581100E+001
 4.618600082E+001
 4.638490677E+001
 4.636305618E+001
 4.798242950E+001
 4.842804337E+001
 3.717311859E+001
 3.671810913E+001
 3.645887756E+001
 3.596293259E+001
 3.547041702E+001
 4.240358734E+001
 4.126107788E+001
 4.096913528E+001
 4.022985458E+001
 3.963470840E+001
 3.890737915E+001
 3.842882538E+001
 3.767084503E+001
 4.692754364E+001
 4.552890396E+001
 4.427884293E+001
 4.356132889E+001
 4.814114380E+001
 4.882702255E+001
 3.795027542E+001
 3.745255280E+001
 3.695482254E+001
 3.860572433E+001
 3.914886856E+001
 3.844800186E+001
 4.053984833E+001
 4.024051666E+001
 3.964659500E+001
 4.172769165E+001
 4.114791107E+001
 4.339068604E+001
 4.414020157E+001
 4.453627014E+001
 4.235696411E+001
 4.323410797E+001
 4.574235916E+001
 4.727897263E+001
 4.748932266E+001
 4.767817307E+001
 4.781193542E+001
 4.932445526E+001
 4.962339020E+001
 5.041975021E+001
 4.319709015E+001
 4.247148132E+001
 4.172702026E+001
 4.111992264E+001
 4.036203766E+001
 4.015161133E+001
 3.942427826E+001
 3.892655563E+001
 4.693265915E+001
 4.571981812E+001
 4.456673813E+001
 4.392739487E+001
 4.957324600E+001
 4.836704254E+001
 5.081358719E+001
 3.894572830E+001
 3.944345474E+001
 4.073823929E+001
 4.043890762E+001
 3.994118118E+001
 4.175597382E+001
 4.134630203E+001
 4.385744476E+001
 4.470973969E+001
 4.509991074E+001
 4.590728378E+001
 4.238524246E+001
 4.301451874E+001
 4.363785172E+001
 4.703371429E+001
 4.858506012E+001
 4.879806900E+001
 4.897710419E+001
 4.914300156E+001
 5.062156296E+001
 5.082242584E+001
 5.106690598E+001
 5.241146088E+001
 4.332902145E+001
 4.260341263E+001
 4.187780380E+001
 4.140721893E+001
 4.064933777E+001
 4.717285538E+001
 4.677558899E+001
 4.563307953E+001
 4.542048645E+001
 4.468353271E+001
 4.408515549E+001
 5.116128922E+001
 4.976298141E+001
 4.859843826E+001
 5.280015564E+001
 4.093663406E+001
 4.184402847E+001
 4.143436050E+001
 4.426118851E+001
 4.481862259E+001
 4.526717377E+001
 4.572447968E+001
 4.657755661E+001
 4.247330093E+001
 4.346875381E+001
 4.297102737E+001
 4.409209061E+001
 4.774400711E+001
 4.854359436E+001
 4.920357513E+001
 5.009812164E+001
 5.026727295E+001
 5.043656921E+001
 5.191903305E+001
 5.211117935E+001
 5.230211639E+001
 5.229816437E+001
 5.390192413E+001
 5.440316772E+001
 4.362600708E+001
 4.312828064E+001
 4.240267181E+001
 4.190494537E+001
 4.788763046E+001
 4.763150024E+001
 4.687916183E+001
 4.614943695E+001
 4.557024384E+001
 4.484129333E+001
 4.438214111E+001
 5.240176010E+001
 5.098679352E+001
 4.998582458E+001
 4.912154388E+001
 5.350493622E+001
 5.478022766E+001
 4.193208694E+001
 4.458981705E+001
 4.514725113E+001
 4.537605667E+001
 4.590351868E+001
 4.735387421E+001
 4.670339203E+001
 4.292753983E+001
 4.242981339E+001
 4.392299271E+001
 4.342526627E+001
 4.442307281E+001
 4.810226440E+001
 4.869618225E+001
 4.999047089E+001
 4.938502121E+001
 5.049814987E+001
 5.105659103E+001
 5.153944397E+001
 5.171526718E+001
 5.321259308E+001
 5.339244843E+001
 5.356198502E+001
 5.370101929E+001
 5.518791962E+001
 5.552722549E+001
 5.639487839E+001
 4.835468674E+001
 4.780387878E+001
 4.705153656E+001
 4.629919434E+001
 4.610654449E+001
 4.537759399E+001
 4.487986755E+001
 5.404919052E+001
 5.288337326E+001
 5.143325043E+001
 5.033315277E+001
 4.978680038E+001
 4.907001114E+001
 5.531547546E+001
 5.675883102E+001
 4.491844559E+001
 4.564497757E+001
 4.541616821E+001
 4.601240158E+001
 4.664874649E+001
 4.794971466E+001
 4.729922867E+001
 4.854363251E+001
 4.913755417E+001
 4.993651962E+001
 5.043852234E+001
 4.968905258E+001
 5.105009842E+001
 5.167849350E+001
 5.218617249E+001
 5.282076645E+001
 5.370681381E+001
 5.452941895E+001
 5.482596207E+001
 5.498857117E+001
 5.643302917E+001
 5.665325928E+001
 5.693631363E+001
 5.838658524E+001
 4.851920319E+001
 4.833902359E+001
 4.784629822E+001
 4.735357666E+001
 4.660123444E+001
 4.640858459E+001
 4.591389465E+001
 5.565040588E+001
 5.435905457E+001
 5.321635437E+001
 5.207683182E+001
 5.119329071E+001
 5.045247650E+001
 4.990020752E+001
 4.923453140E+001
 5.724263763E+001
 5.873743820E+001
 4.628132248E+001
 4.726873016E+001
 4.677600861E+001
 4.841194153E+001
 4.791921616E+001
 4.900585938E+001
 4.949858475E+001
 5.024055099E+001
 5.085212326E+001
 5.005008316E+001
 5.146369934E+001
 5.205410767E+001
 5.279618073E+001
 5.264451218E+001
 5.353011703E+001
 5.423398209E+001
 5.463605499E+001
 5.548912811E+001
 5.562622833E+001
 5.602229691E+001
 5.751517868E+001
 5.788588333E+001
 5.810317612E+001
 5.815018463E+001
 5.968261337E+001
 6.037829590E+001
 4.905434799E+001
 4.887416840E+001
 4.838144302E+001
 4.788871765E+001
 4.739599609E+001
 4.690327072E+001
 5.584373474E+001
 5.468359756E+001
 5.410288239E+001
 5.297560883E+001
 5.227501297E+001
 5.166580200E+001
 5.110736084E+001
 5.056588364E+001
 5.021274948E+001
 4.954707336E+001
 5.876622391E+001
 5.716571426E+001
 6.009529495E+001
 6.071604538E+001
 4.936688995E+001
 4.985961533E+001
 5.054280472E+001
 5.115438080E+001
 5.032954407E+001
 5.163514328E+001
 5.211411285E+001
 5.270451736E+001
 5.337845230E+001
 5.318348312E+001
 5.411239243E+001
 5.471616364E+001
 5.459457779E+001
 5.526059341E+001
 5.609238434E+001
 5.569860458E+001
 5.609846497E+001
 5.657070160E+001
 5.747815323E+001
 5.872512817E+001
 5.910122681E+001
 5.930433273E+001
 5.947746277E+001
 6.092750168E+001
 6.113325119E+001
 6.236842728E+001
 6.281164551E+001
 5.610553741E+001
 5.500377274E+001
 5.447125244E+001
 5.375442505E+001
 5.306079865E+001
 5.253363419E+001
 5.210892487E+001
 5.168421555E+001
 5.112504959E+001
 5.070547485E+001
 5.901708221E+001
 5.761710739E+001
 6.152298355E+001
 6.042261124E+001
 6.269464874E+001
 5.084506226E+001
 5.132582474E+001
 5.180658722E+001
 5.276452255E+001
 5.228555679E+001
 5.324348831E+001
 5.391742325E+001
 5.372245789E+001
 5.439639282E+001
 5.507675934E+001
 5.487857437E+001
 5.551477432E+001
 5.595278549E+001
 5.634656525E+001
 5.657756805E+001
 5.678396988E+001
 5.710924911E+001
 5.754240417E+001
 5.798344040E+001
 5.860692596E+001
 5.903220749E+001
 5.952049637E+001
 5.970854568E+001
 6.028360367E+001
 6.074222183E+001
 6.161297607E+001
 6.234603119E+001
 6.378170013E+001
 6.398438644E+001
 6.508152771E+001
 5.643854141E+001
 5.593028259E+001
 5.515642548E+001
 5.460606003E+001
 5.392088318E+001
 5.322726059E+001
 5.264907837E+001
 5.217011261E+001
 5.174540329E+001
 5.126464081E+001
 5.927668381E+001
 5.792332077E+001
 6.308716583E+001
 6.183188629E+001
 6.062963104E+001
 6.463582611E+001
 5.334270477E+001
 5.382167053E+001
 5.420142365E+001
 5.430063629E+001
 5.468038940E+001
 5.535730743E+001
 5.515912247E+001
 5.579532242E+001
 5.627349472E+001
 5.666727448E+001
 5.674034500E+001
 5.717350388E+001
 5.760665894E+001
 5.804769135E+001
 5.848872757E+001
 5.891400528E+001
 5.933929062E+001
 6.031586075E+001
 5.982757568E+001
 6.039940643E+001
 6.096644974E+001
 6.108319092E+001
 6.175586319E+001
 6.249199295E+001
 6.252698517E+001
 6.353239441E+001
 6.472576904E+001
 6.527417755E+001
 6.511232758E+001
 6.650607300E+001
 5.688594055E+001
 5.608858871E+001
 5.529123688E+001
 5.498581314E+001
 5.942309952E+001
 5.810985565E+001
 6.462281036E+001
 6.324337769E+001
 6.201068497E+001
 6.078477859E+001
 6.656809235E+001
 5.563785553E+001
 5.546454620E+001
 5.611602783E+001
 5.659420013E+001
 5.707237244E+001
 5.714544678E+001
 5.757860184E+001
 5.805677414E+001
 5.849781036E+001
 5.897598267E+001
 5.940126419E+001
 5.986215591E+001
 6.080728531E+001
 6.035044098E+001
 6.088290405E+001
 6.159086609E+001
 6.144994736E+001
 6.211316299E+001
 6.270775223E+001
 6.312658691E+001
 6.386855698E+001
 6.452930450E+001
 6.500971222E+001
 6.561613464E+001
 6.584287262E+001
 6.648993683E+001
 6.749308777E+001
 5.739359665E+001
 5.678163910E+001
 5.598428726E+001
 6.000690460E+001
 5.932606506E+001
 5.871964645E+001
 5.806302261E+001
 6.573104095E+001
 6.459323120E+001
 6.340330124E+001
 6.219050217E+001
 6.169240189E+001
 6.062907410E+001
 6.699445343E+001
 6.850035858E+001
 5.615759659E+001
 5.663577271E+001
 5.711394119E+001
 5.755054474E+001
 5.802872086E+001
 5.850688934E+001
 5.898506546E+001
 5.946323776E+001
 5.992412949E+001
 6.038502121E+001
 6.137432480E+001
 6.129870605E+001
 6.084186554E+001
 6.189885712E+001
 6.183116913E+001
 6.234776306E+001
 6.332433701E+001
 6.283605194E+001
 6.328728867E+001
 6.374407196E+001
 6.423790741E+001
 6.471831512E+001
 6.519873047E+001
 6.580514526E+001
 6.641156769E+001
 6.649481201E+001
 6.709335327E+001
 6.772694397E+001
 6.827568817E+001
 5.734676361E+001
 5.667734146E+001
 5.985120392E+001
 5.922903061E+001
 5.862261200E+001
 5.801618958E+001
 6.604049683E+001
 6.488880920E+001
 6.370439911E+001
 6.255171585E+001
 6.205596161E+001
 6.128626251E+001
 6.047337341E+001
 6.761661530E+001
 6.919116974E+001
 7.043262482E+001
 5.778336716E+001
 5.826153946E+001
 5.886796188E+001
 5.934613419E+001
 5.996830368E+001
 6.042919922E+001
 6.097261429E+001
 6.175554657E+001
 6.188629532E+001
 6.142945480E+001
 6.228007507E+001
 6.221239090E+001
 6.273691940E+001
 6.368265533E+001
 6.378112030E+001
 6.322520447E+001
 6.459692383E+001
 6.413944244E+001
 6.507733154E+001
 6.553481293E+001
 6.614123535E+001
 6.659871674E+001
 6.705888367E+001
 6.701011658E+001
 6.760865784E+001
 6.815740204E+001
 6.870615387E+001
 6.642959595E+001
 6.523737335E+001
 6.392617416E+001
 6.324081421E+001
 6.258362579E+001
 6.208787155E+001
 6.156020355E+001
 6.101678848E+001
 6.794879913E+001
 7.091570282E+001
 6.935696411E+001
 7.236489105E+001
 6.241395950E+001
 6.266923141E+001
 6.312607193E+001
 6.358352280E+001
 6.404097748E+001
 6.495594025E+001
 6.449845886E+001
 6.541342163E+001
 6.587090302E+001
 6.632838440E+001
 6.678587341E+001
 6.765742493E+001
 6.770619965E+001
 6.724603271E+001
 6.811955261E+001
 6.866830444E+001
 6.911925507E+001
 6.680514526E+001
 6.554972076E+001
 6.477653503E+001
 6.385002518E+001
 6.314319992E+001
 6.261553574E+001
 6.839073181E+001
 7.266807556E+001
 7.182053375E+001
 7.011595917E+001
 7.419794464E+001
 6.287080383E+001
 6.339846802E+001
 6.385591888E+001
 6.419457245E+001
 6.465205383E+001
 6.524272156E+001
 6.570020294E+001
 6.623574066E+001
 6.669322968E+001
 6.713426208E+001
 6.816832733E+001
 6.759442139E+001
 6.809058380E+001
 6.863045502E+001
 6.908140564E+001
 6.953235626E+001
 6.721314240E+001
 6.567939758E+001
 6.501377869E+001
 6.443385315E+001
 6.367086411E+001
 6.902370453E+001
 7.384033203E+001
 7.245140076E+001
 7.071951294E+001
 7.601699829E+001
 7.549888611E+001
 6.400951385E+001
 6.434816742E+001
 6.493883514E+001
 6.552950287E+001
 6.606504059E+001
 6.660057831E+001
 6.704161835E+001
 6.748265076E+001
 6.855271149E+001
 6.797881317E+001
 6.847497559E+001
 6.903311920E+001
 6.948407745E+001
 6.995316315E+001
 6.809870911E+001
 6.674378204E+001
 6.613664246E+001
 6.560445404E+001
 6.964944458E+001
 7.580094910E+001
 7.406977844E+001
 7.289672089E+001
 7.123780060E+001
 7.783605957E+001
 6.681993103E+001
 6.747991180E+001
 6.813988495E+001
 6.895538330E+001
 6.907908630E+001
 6.886332703E+001
 6.943579102E+001
 6.990487671E+001
 7.037396240E+001
 6.855343628E+001
 7.005952454E+001
 7.796798706E+001
 7.628086090E+001
 7.459373474E+001
 7.306133270E+001
 7.171202850E+001
 7.965511322E+001
 6.975175476E+001
 6.978983307E+001
 7.025943756E+001
 7.079672241E+001
 7.102040100E+001
 7.290660858E+001
 7.121948242E+001
 1 2 3
 3 4 1
 3 5 4
 3 6 5
 5 6 7
 7 6 8
 5 9 4
 7 9 5
 10 2 1
 10 1 11
 1 4 11
 10 12 2
 11 4 13
 4 9 13
 7 14 9
 7 8 14
 8 15 14
 9 16 13
 14 16 9
 17 12 10
 17 10 18
 18 10 11
 18 11 19
 19 11 13
 19 13 20
 20 13 16
 16 14 21
 14 22 21
 14 15 22
 15 23 22
 24 20 16
 16 25 24
 16 21 25
 17 26 27
 26 17 18
 26 18 28
 28 18 19
 28 19 29
 19 20 29
 20 30 29
 30 20 24
 31 25 21
 21 22 31
 22 32 31
 23 32 22
 23 33 32
 34 33 23
 24 35 30
 35 24 36
 36 24 37
 24 25 37
 25 38 37
 38 25 31
 27 26 39
 39 26 28
 27 40 41
 27 39 40
 39 28 42
 42 28 29
 42 29 43
 30 43 29
 44 43 30
 44 30 45
 30 35 45
 46 38 31
 46 31 32
 46 32 47
 47 32 33
 48 47 33
 48 33 49
 34 49 33
 34 50 49
 45 35 51
 35 52 51
 36 52 35
 52 36 53
 37 53 36
 53 37 38
 54 53 38
 54 38 46
 40 39 42
 41 40 55
 40 42 55
 41 55 56
 55 42 57
 42 43 57
 58 57 43
 58 43 59
 59 43 44
 44 60 59
 44 45 60
 60 45 51
 54 46 61
 61 46 47
 62 61 47
 63 62 47
 63 47 48
 64 63 48
 65 64 48
 65 48 66
 66 48 49
 50 66 49
 67 66 50
 68 67 50
 69 60 51
 70 69 51
 70 51 52
 52 53 70
 71 70 53
 71 53 54
 71 54 72
 54 61 72
 73 55 74
 55 73 56
 55 57 74
 75 56 73
 74 57 76
 76 57 58
 76 58 77
 77 58 78
 78 58 79
 58 59 79
 59 80 79
 60 80 59
 80 60 81
 81 60 69
 72 61 62
 72 62 82
 83 82 62
 83 62 63
 83 63 84
 84 63 64
 64 85 84
 86 85 64
 86 64 65
 65 87 86
 87 65 67
 67 65 66
 88 87 67
 68 88 67
 89 88 68
 90 81 69
 91 90 69
 91 69 70
 71 91 70
 92 91 71
 72 92 71
 82 92 72
 73 93 75
 93 73 74
 94 93 74
 74 76 94
 75 95 96
 95 75 93
 97 94 76
 97 76 77
 97 77 98
 98 77 99
 77 100 99
 77 78 100
 100 78 101
 78 102 101
 78 79 102
 102 79 103
 80 103 79
 80 104 103
 81 104 80
 104 81 105
 105 81 90
 106 107 82
 107 92 82
 106 82 83
 108 106 83
 84 108 83
 109 108 84
 109 84 110
 84 85 110
 110 85 111
 111 85 112
 112 85 86
 112 86 113
 114 113 86
 86 87 114
 114 87 115
 115 87 88
 115 88 116
 89 116 88
 89 117 116
 105 90 107
 92 107 90
 92 90 91
 95 93 118
 118 93 94
 119 118 94
 119 94 97
 120 96 95
 118 120 95
 96 121 122
 121 96 120
 97 123 119
 124 123 97
 124 97 98
 125 124 98
 98 99 125
 125 99 126
 126 99 127
 99 100 127
 100 101 127
 127 101 128
 128 101 129
 102 129 101
 102 130 129
 102 103 130
 103 131 130
 103 104 131
 104 132 131
 132 104 133
 105 133 104
 105 134 133
 107 134 105
 107 106 135
 135 106 108
 107 135 134
 108 109 136
 135 108 136
 109 110 137
 109 137 136
 110 111 138
 110 138 137
 138 111 139
 139 111 140
 111 112 140
 112 141 140
 112 113 141
 113 142 141
 143 142 113
 114 143 113
 143 114 144
 114 115 144
 115 145 144
 116 145 115
 145 116 146
 116 117 146
 117 147 146
 148 120 118
 148 118 119
 149 148 119
 123 149 119
 120 148 121
 121 150 122
 150 121 151
 148 151 121
 150 152 122
 123 153 149
 123 154 153
 155 154 123
 124 155 123
 156 155 124
 124 157 156
 157 124 125
 158 157 125
 158 125 126
 158 126 159
 126 160 159
 126 127 160
 128 160 127
 160 128 161
 161 128 162
 128 129 162
 162 129 163
 163 129 130
 163 130 164
 130 131 164
 164 131 132
 132 165 164
 166 165 132
 133 166 132
 133 134 166
 134 136 166
 134 135 136
 136 137 166
 137 138 165
 166 137 165
 165 138 167
 138 139 167
 168 139 169
 167 139 168
 139 140 169
 140 141 169
 142 170 141
 169 141 170
 171 172 142
 142 172 170
 143 171 142
 143 173 171
 143 174 173
 144 174 143
 144 175 174
 176 175 144
 144 145 176
 177 176 145
 146 177 145
 177 146 178
 178 146 147
 147 179 178
 147 180 179
 151 148 149
 181 151 149
 181 149 182
 149 153 182
 152 150 183
 184 183 150
 150 151 184
 184 151 181
 183 185 152
 182 153 186
 153 154 186
 154 187 186
 188 187 154
 188 154 155
 155 156 188
 189 188 156
 156 190 189
 156 191 190
 157 191 156
 191 157 158
 192 191 158
 192 158 159
 159 193 192
 159 194 193
 159 160 194
 194 160 161
 194 161 195
 161 196 195
 161 162 196
 162 168 196
 162 163 168
 167 168 163
 163 164 167
 165 167 164
 168 169 196
 170 196 169
 172 195 170
 196 170 195
 197 172 171
 171 198 197
 171 173 198
 172 199 195
 200 172 197
 199 172 200
 201 173 202
 198 173 201
 174 202 173
 202 174 175
 175 203 202
 175 204 203
 176 204 175
 176 205 204
 176 177 205
 206 205 177
 177 178 206
 179 206 178
 179 207 206
 208 207 179
 180 208 179
 180 209 208
 184 181 210
 181 211 210
 181 182 211
 182 212 211
 213 212 182
 182 186 213
 183 214 185
 184 214 183
 215 214 184
 184 210 215
 185 216 217
 185 214 216
 186 218 213
 187 218 186
 219 218 187
 188 219 187
 188 189 219
 219 189 220
 189 221 220
 221 189 190
 221 190 222
 222 190 191
 191 192 222
 192 223 222
 193 223 192
 223 193 200
 193 199 200
 194 199 193
 199 194 195
 224 197 225
 197 224 200
 198 225 197
 198 201 225
 224 226 200
 226 223 200
 227 201 228
 229 201 227
 225 201 229
 201 202 228
 228 202 230
 230 202 203
 203 231 232
 230 203 232
 204 231 203
 233 231 204
 205 233 204
 234 233 205
 206 234 205
 207 234 206
 235 234 207
 207 236 235
 208 236 207
 208 237 236
 237 208 209
 209 238 237
 210 239 215
 240 239 210
 210 241 240
 241 210 211
 241 211 242
 211 212 242
 212 243 242
 244 243 212
 213 244 212
 213 218 244
 215 216 214
 215 245 216