TITLE     = "Modflow Project: swf1"
VARIABLES = "X"
ZONE T="GWF"
 STRANDID=1, SOLUTIONTIME=60
 Nodes=408, Elements=101, ZONETYPE=FEBrick
 DATAPACKING=POINT
 FACENEIGHBORCONNECTIONS=200
 FACENEIGHBORMODE=LOCALONETOONE
 FEFACENEIGHBORSCOMPLETE=YES
 AUXDATA LengthUnits="METERS"
 AUXDATA TimeUnits="SECONDS"
 DT=(SINGLE )
 0.000000000E+000
 1.000000000E+000
 1.000000000E+000
 0.000000000E+000
 2.000000000E+000
 2.000000000E+000
 3.000000000E+000
 3.000000000E+000
 4.000000000E+000
 4.000000000E+000
 5.000000000E+000
 5.000000000E+000
 6.000000000E+000
 6.000000000E+000
 7.000000000E+000
 7.000000000E+000
 8.000000000E+000
 8.000000000E+000
 9.000000000E+000
 9.000000000E+000
 1.000000000E+001
 1.000000000E+001
 1.100000000E+001
 1.100000000E+001
 1.200000000E+001
 1.200000000E+001
 1.300000000E+001
 1.300000000E+001
 1.400000000E+001
 1.400000000E+001
 1.500000000E+001
 1.500000000E+001
 1.600000000E+001
 1.600000000E+001
 1.700000000E+001
 1.700000000E+001
 1.800000000E+001
 1.800000000E+001
 1.900000000E+001
 1.900000000E+001
 2.000000000E+001
 2.000000000E+001
 2.100000000E+001
 2.100000000E+001
 2.200000000E+001
 2.200000000E+001
 2.300000000E+001
 2.300000000E+001
 2.400000000E+001
 2.400000000E+001
 2.500000000E+001
 2.500000000E+001
 2.600000000E+001
 2.600000000E+001
 2.700000000E+001
 2.700000000E+001
 2.800000000E+001
 2.800000000E+001
 2.900000000E+001
 2.900000000E+001
 3.000000000E+001
 3.000000000E+001
 3.100000000E+001
 3.100000000E+001
 3.200000000E+001
 3.200000000E+001
 3.300000000E+001
 3.300000000E+001
 3.400000000E+001
 3.400000000E+001
 3.500000000E+001
 3.500000000E+001
 3.600000000E+001
 3.600000000E+001
 3.700000000E+001
 3.700000000E+001
 3.800000000E+001
 3.800000000E+001
 3.900000000E+001
 3.900000000E+001
 4.000000000E+001
 4.000000000E+001
 4.100000000E+001
 4.100000000E+001
 4.200000000E+001
 4.200000000E+001
 4.300000000E+001
 4.300000000E+001
 4.400000000E+001
 4.400000000E+001
 4.500000000E+001
 4.500000000E+001
 4.600000000E+001
 4.600000000E+001
 4.700000000E+001
 4.700000000E+001
 4.800000000E+001
 4.800000000E+001
 4.900000000E+001
 4.900000000E+001
 5.000000000E+001
 5.000000000E+001
 5.100000000E+001
 5.100000000E+001
 5.200000000E+001
 5.200000000E+001
 5.300000000E+001
 5.300000000E+001
 5.400000000E+001
 5.400000000E+001
 5.500000000E+001
 5.500000000E+001
 5.600000000E+001
 5.600000000E+001
 5.700000000E+001
 5.700000000E+001
 5.800000000E+001
 5.800000000E+001
 5.900000000E+001
 5.900000000E+001
 6.000000000E+001
 6.000000000E+001
 6.100000000E+001
 6.100000000E+001
 6.200000000E+001
 6.200000000E+001
 6.300000000E+001
 6.300000000E+001
 6.400000000E+001
 6.400000000E+001
 6.500000000E+001
 6.500000000E+001
 6.600000000E+001
 6.600000000E+001
 6.700000000E+001
 6.700000000E+001
 6.800000000E+001
 6.800000000E+001
 6.900000000E+001
 6.900000000E+001
 7.000000000E+001
 7.000000000E+001
 7.100000000E+001
 7.100000000E+001
 7.200000000E+001
 7.200000000E+001
 7.300000000E+001
 7.300000000E+001
 7.400000000E+001
 7.400000000E+001
 7.500000000E+001
 7.500000000E+001
 7.600000000E+001
 7.600000000E+001
 7.700000000E+001
 7.700000000E+001
 7.800000000E+001
 7.800000000E+001
 7.900000000E+001
 7.900000000E+001
 8.000000000E+001
 8.000000000E+001
 8.100000000E+001
 8.100000000E+001
 8.200000000E+001
 8.200000000E+001
 8.300000000E+001
 8.300000000E+001
 8.400000000E+001
 8.400000000E+001
 8.500000000E+001
 8.500000000E+001
 8.600000000E+001
 8.600000000E+001
 8.700000000E+001
 8.700000000E+001
 8.800000000E+001
 8.800000000E+001
 8.900000000E+001
 8.900000000E+001
 9.000000000E+001
 9.000000000E+001
 9.100000000E+001
 9.100000000E+001
 9.200000000E+001
 9.200000000E+001
 9.300000000E+001
 9.300000000E+001
 9.400000000E+001
 9.400000000E+001
 9.500000000E+001
 9.500000000E+001
 9.600000000E+001
 9.600000000E+001
 9.700000000E+001
 9.700000000E+001
 9.800000000E+001
 9.800000000E+001
 9.900000000E+001
 9.900000000E+001
 1.000000000E+002
 1.000000000E+002
 1.010000000E+002
 1.010000000E+002
 0.000000000E+000
 1.000000000E+000
 1.000000000E+000
 0.000000000E+000
 2.000000000E+000
 2.000000000E+000
 3.000000000E+000
 3.000000000E+000
 4.000000000E+000
 4.000000000E+000
 5.000000000E+000
 5.000000000E+000
 6.000000000E+000
 6.000000000E+000
 7.000000000E+000
 7.000000000E+000
 8.000000000E+000
 8.000000000E+000
 9.000000000E+000
 9.000000000E+000
 1.000000000E+001
 1.000000000E+001
 1.100000000E+001
 1.100000000E+001
 1.200000000E+001
 1.200000000E+001
 1.300000000E+001
 1.300000000E+001
 1.400000000E+001
 1.400000000E+001
 1.500000000E+001
 1.500000000E+001
 1.600000000E+001
 1.600000000E+001
 1.700000000E+001
 1.700000000E+001
 1.800000000E+001
 1.800000000E+001
 1.900000000E+001
 1.900000000E+001
 2.000000000E+001
 2.000000000E+001
 2.100000000E+001
 2.100000000E+001
 2.200000000E+001
 2.200000000E+001
 2.300000000E+001
 2.300000000E+001
 2.400000000E+001
 2.400000000E+001
 2.500000000E+001
 2.500000000E+001
 2.600000000E+001
 2.600000000E+001
 2.700000000E+001
 2.700000000E+001
 2.800000000E+001
 2.800000000E+001
 2.900000000E+001
 2.900000000E+001
 3.000000000E+001
 3.000000000E+001
 3.100000000E+001
 3.100000000E+001
 3.200000000E+001
 3.200000000E+001
 3.300000000E+001
 3.300000000E+001
 3.400000000E+001
 3.400000000E+001
 3.500000000E+001
 3.500000000E+001
 3.600000000E+001
 3.600000000E+001
 3.700000000E+001
 3.700000000E+001
 3.800000000E+001
 3.800000000E+001
 3.900000000E+001
 3.900000000E+001
 4.000000000E+001
 4.000000000E+001
 4.100000000E+001
 4.100000000E+001
 4.200000000E+001
 4.200000000E+001
 4.300000000E+001
 4.300000000E+001
 4.400000000E+001
 4.400000000E+001
 4.500000000E+001
 4.500000000E+001
 4.600000000E+001
 4.600000000E+001
 4.700000000E+001
 4.700000000E+001
 4.800000000E+001
 4.800000000E+001
 4.900000000E+001
 4.900000000E+001
 5.000000000E+001
 5.000000000E+001
 5.100000000E+001
 5.100000000E+001
 5.200000000E+001
 5.200000000E+001
 5.300000000E+001
 5.300000000E+001
 5.400000000E+001
 5.400000000E+001
 5.500000000E+001
 5.500000000E+001
 5.600000000E+001
 5.600000000E+001
 5.700000000E+001
 5.700000000E+001
 5.800000000E+001
 5.800000000E+001
 5.900000000E+001
 5.900000000E+001
 6.000000000E+001
 6.000000000E+001
 6.100000000E+001
 6.100000000E+001
 6.200000000E+001
 6.200000000E+001
 6.300000000E+001
 6.300000000E+001
 6.400000000E+001
 6.400000000E+001
 6.500000000E+001
 6.500000000E+001
 6.600000000E+001
 6.600000000E+001
 6.700000000E+001
 6.700000000E+001
 6.800000000E+001
 6.800000000E+001
 6.900000000E+001
 6.900000000E+001
 7.000000000E+001
 7.000000000E+001
 7.100000000E+001
 7.100000000E+001
 7.200000000E+001
 7.200000000E+001
 7.300000000E+001
 7.300000000E+001
 7.400000000E+001
 7.400000000E+001
 7.500000000E+001
 7.500000000E+001
 7.600000000E+001
 7.600000000E+001
 7.700000000E+001
 7.700000000E+001
 7.800000000E+001
 7.800000000E+001
 7.900000000E+001
 7.900000000E+001
 8.000000000E+001
 8.000000000E+001
 8.100000000E+001
 8.100000000E+001
 8.200000000E+001
 8.200000000E+001
 8.300000000E+001
 8.300000000E+001
 8.400000000E+001
 8.400000000E+001
 8.500000000E+001
 8.500000000E+001
 8.600000000E+001
 8.600000000E+001
 8.700000000E+001
 8.700000000E+001
 8.800000000E+001
 8.800000000E+001
 8.900000000E+001
 8.900000000E+001
 9.000000000E+001
 9.000000000E+001
 9.100000000E+001
 9.100000000E+001
 9.200000000E+001
 9.200000000E+001
 9.300000000E+001
 9.300000000E+001
 9.400000000E+001
 9.400000000E+001
 9.500000000E+001
 9.500000000E+001
 9.600000000E+001
 9.600000000E+001
 9.700000000E+001
 9.700000000E+001
 9.800000000E+001
 9.800000000E+001
 9.900000000E+001
 9.900000000E+001
 1.000000000E+002
 1.000000000E+002
 1.010000000E+002
 1.010000000E+002
 1 4 3 2 205 208 207 206
 2 3 6 5 206 207 210 209
 5 6 8 7 209 210 212 211
 7 8 10 9 211 212 214 213
 9 10 12 11 213 214 216 215
 11 12 14 13 215 216 218 217
 13 14 16 15 217 218 220 219
 15 16 18 17 219 220 222 221
 17 18 20 19 221 222 224 223
 19 20 22 21 223 224 226 225
 21 22 24 23 225 226 228 227
 23 24 26 25 227 228 230 229
 25 26 28 27 229 230 232 231
 27 28 30 29 231 232 234 233
 29 30 32 31 233 234 236 235
 31 32 34 33 235 236 238 237
 33 34 36 35 237 238 240 239
 35 36 38 37 239 240 242 241
 37 38 40 39 241 242 244 243
 39 40 42 41 243 244 246 245
 41 42 44 43 245 246 248 247
 43 44 46 45 247 248 250 249
 45 46 48 47 249 250 252 251
 47 48 50 49 251 252 254 253
 49 50 52 51 253 254 256 255
 51 52 54 53 255 256 258 257
 53 54 56 55 257 258 260 259
 55 56 58 57 259 260 262 261
 57 58 60 59 261 262 264 263
 59 60 62 61 263 264 266 265
 61 62 64 63 265 266 268 267
 63 64 66 65 267 268 270 269
 65 66 68 67 269 270 272 271
 67 68 70 69 271 272 274 273
 69 70 72 71 273 274 276 275
 71 72 74 73 275 276 278 277
 73 74 76 75 277 278 280 279
 75 76 78 77 279 280 282 281
 77 78 80 79 281 282 284 283
 79 80 82 81 283 284 286 285
 81 82 84 83 285 286 288 287
 83 84 86 85 287 288 290 289
 85 86 88 87 289 290 292 291
 87 88 90 89 291 292 294 293
 89 90 92 91 293 294 296 295
 91 92 94 93 295 296 298 297
 93 94 96 95 297 298 300 299
 95 96 98 97 299 300 302 301
 97 98 100 99 301 302 304 303
 99 100 102 101 303 304 306 305
 101 102 104 103 305 306 308 307
 103 104 106 105 307 308 310 309
 105 106 108 107 309 310 312 311
 107 108 110 109 311 312 314 313
 109 110 112 111 313 314 316 315
 111 112 114 113 315 316 318 317
 113 114 116 115 317 318 320 319
 115 116 118 117 319 320 322 321
 117 118 120 119 321 322 324 323
 119 120 122 121 323 324 326 325
 121 122 124 123 325 326 328 327
 123 124 126 125 327 328 330 329
 125 126 128 127 329 330 332 331
 127 128 130 129 331 332 334 333
 129 130 132 131 333 334 336 335
 131 132 134 133 335 336 338 337
 133 134 136 135 337 338 340 339
 135 136 138 137 339 340 342 341
 137 138 140 139 341 342 344 343
 139 140 142 141 343 344 346 345
 141 142 144 143 345 346 348 347
 143 144 146 145 347 348 350 349
 145 146 148 147 349 350 352 351
 147 148 150 149 351 352 354 353
 149 150 152 151 353 354 356 355
 151 152 154 153 355 356 358 357
 153 154 156 155 357 358 360 359
 155 156 158 157 359 360 362 361
 157 158 160 159 361 362 364 363
 159 160 162 161 363 364 366 365
 161 162 164 163 365 366 368 367
 163 164 166 165 367 368 370 369
 165 166 168 167 369 370 372 371
 167 168 170 169 371 372 374 373
 169 170 172 171 373 374 376 375
 171 172 174 173 375 376 378 377
 173 174 176 175 377 378 380 379
 175 176 178 177 379 380 382 381
 177 178 180 179 381 382 384 383
 179 180 182 181 383 384 386 385
 181 182 184 183 385 386 388 387
 183 184 186 185 387 388 390 389
 185 186 188 187 389 390 392 391
 187 188 190 189 391 392 394 393
 189 190 192 191 393 394 396 395
 191 192 194 193 395 396 398 397
 193 194 196 195 397 398 400 399
 195 196 198 197 399 400 402 401
 197 198 200 199 401 402 404 403
 199 200 202 201 403 404 406 405
 201 202 204 203 405 406 408 407
 1 4 2
 2 3 1
 2 4 3
 3 3 2
 3 4 4
 4 3 3
 4 4 5
 5 3 4
 5 4 6
 6 3 5
 6 4 7
 7 3 6
 7 4 8
 8 3 7
 8 4 9
 9 3 8
 9 4 10
 10 3 9
 10 4 11
 11 3 10
 11 4 12
 12 3 11
 12 4 13
 13 3 12
 13 4 14
 14 3 13
 14 4 15
 15 3 14
 15 4 16
 16 3 15
 16 4 17
 17 3 16
 17 4 18
 18 3 17
 18 4 19
 19 3 18
 19 4 20
 20 3 19
 20 4 21
 21 3 20
 21 4 22
 22 3 21
 22 4 23
 23 3 22
 23 4 24
 24 3 23
 24 4 25
 25 3 24
 25 4 26
 26 3 25
 26 4 27
 27 3 26
 27 4 28
 28 3 27
 28 4 29
 29 3 28
 29 4 30
 30 3 29
 30 4 31
 31 3 30
 31 4 32
 32 3 31
 32 4 33
 33 3 32
 33 4 34
 34 3 33
 34 4 35
 35 3 34
 35 4 36
 36 3 35
 36 4 37
 37 3 36
 37 4 38
 38 3 37
 38 4 39
 39 3 38
 39 4 40
 40 3 39
 40 4 41
 41 3 40
 41 4 42
 42 3 41
 42 4 43
 43 3 42
 43 4 44
 44 3 43
 44 4 45
 45 3 44
 45 4 46
 46 3 45
 46 4 47
 47 3 46
 47 4 48
 48 3 47
 48 4 49
 49 3 48
 49 4 50
 50 3 49
 50 4 51
 51 3 50
 51 4 52
 52 3 51
 52 4 53
 53 3 52
 53 4 54
 54 3 53
 54 4 55
 55 3 54
 55 4 56
 56 3 55
 56 4 57
 57 3 56
 57 4 58
 58 3 57
 58 4 59
 59 3 58
 59 4 60
 60 3 59
 60 4 61
 61 3 60
 61 4 62
 62 3 61
 62 4 63
 63 3 62
 63 4 64
 64 3 63
 64 4 65
 65 3 64
 65 4 66
 66 3 65
 66 4 67
 67 3 66
 67 4 68
 68 3 67
 68 4 69
 69 3 68
 69 4 70
 70 3 69
 70 4 71
 71 3 70
 71 4 72
 72 3 71
 72 4 73
 73 3 72
 73 4 74
 74 3 73
 74 4 75
 75 3 74
 75 4 76
 76 3 75
 76 4 77
 77 3 76
 77 4 78
 78 3 77
 78 4 79
 79 3 78
 79 4 80
 80 3 79
 80 4 81
 81 3 80
 81 4 82
 82 3 81
 82 4 83
 83 3 82
 83 4 84
 84 3 83
 84 4 85
 85 3 84
 85 4 86
 86 3 85
 86 4 87
 87 3 86
 87 4 88
 88 3 87
 88 4 89
 89 3 88
 89 4 90
 90 3 89
 90 4 91
 91 3 90
 91 4 92
 92 3 91
 92 4 93
 93 3 92
 93 4 94
 94 3 93
 94 4 95
 95 3 94
 95 4 96
 96 3 95
 96 4 97
 97 3 96
 97 4 98
 98 3 97
 98 4 99
 99 3 98
 99 4 100
 100 3 99
 100 4 101
 101 3 100
ZONE T="GWF"
 STRANDID=1, SOLUTIONTIME=300
 Nodes=408, Elements=101, ZONETYPE=FEBrick
 DATAPACKING=POINT
 FACENEIGHBORCONNECTIONS=200
 FACENEIGHBORMODE=LOCALONETOONE
 FEFACENEIGHBORSCOMPLETE=YES
 AUXDATA LengthUnits="METERS"
 AUXDATA TimeUnits="SECONDS"
 DT=(SINGLE )
 VARSHARELIST = ([1]=1)
 CONNECTIVITYSHAREZONE = 1
ZONE T="GWF"
 STRANDID=1, SOLUTIONTIME=3600
 Nodes=408, Elements=101, ZONETYPE=FEBrick
 DATAPACKING=POINT
 FACENEIGHBORCONNECTIONS=200
 FACENEIGHBORMODE=LOCALONETOONE
 FEFACENEIGHBORSCOMPLETE=YES
 AUXDATA LengthUnits="METERS"
 AUXDATA TimeUnits="SECONDS"
 DT=(SINGLE )
 VARSHARELIST = ([1]=1)
 CONNECTIVITYSHAREZONE = 1
