TITLE     = "Modflow Project: swf1"
VARIABLES = "X"
ZONE T="SWF"
 STRANDID=1, SOLUTIONTIME=60
 Nodes=204, Elements=101, ZONETYPE=FEQuadrilateral
 DATAPACKING=POINT
 FACENEIGHBORCONNECTIONS=200
 FACENEIGHBORMODE=LOCALONETOONE
 FEFACENEIGHBORSCOMPLETE=YES
 AUXDATA LengthUnits="METERS"
 AUXDATA TimeUnits="SECONDS"
 DT=(SINGLE )
 0.000000000E+000
 0.000000000E+000
 1.000000000E+000
 1.000000000E+000
 2.000000000E+000
 2.000000000E+000
 3.000000000E+000
 3.000000000E+000
 4.000000000E+000
 4.000000000E+000
 5.000000000E+000
 5.000000000E+000
 6.000000000E+000
 6.000000000E+000
 7.000000000E+000
 7.000000000E+000
 8.000000000E+000
 8.000000000E+000
 9.000000000E+000
 9.000000000E+000
 1.000000000E+001
 1.000000000E+001
 1.100000000E+001
 1.100000000E+001
 1.200000000E+001
 1.200000000E+001
 1.300000000E+001
 1.300000000E+001
 1.400000000E+001
 1.400000000E+001
 1.500000000E+001
 1.500000000E+001
 1.600000000E+001
 1.600000000E+001
 1.700000000E+001
 1.700000000E+001
 1.800000000E+001
 1.800000000E+001
 1.900000000E+001
 1.900000000E+001
 2.000000000E+001
 2.000000000E+001
 2.100000000E+001
 2.100000000E+001
 2.200000000E+001
 2.200000000E+001
 2.300000000E+001
 2.300000000E+001
 2.400000000E+001
 2.400000000E+001
 2.500000000E+001
 2.500000000E+001
 2.600000000E+001
 2.600000000E+001
 2.700000000E+001
 2.700000000E+001
 2.800000000E+001
 2.800000000E+001
 2.900000000E+001
 2.900000000E+001
 3.000000000E+001
 3.000000000E+001
 3.100000000E+001
 3.100000000E+001
 3.200000000E+001
 3.200000000E+001
 3.300000000E+001
 3.300000000E+001
 3.400000000E+001
 3.400000000E+001
 3.500000000E+001
 3.500000000E+001
 3.600000000E+001
 3.600000000E+001
 3.700000000E+001
 3.700000000E+001
 3.800000000E+001
 3.800000000E+001
 3.900000000E+001
 3.900000000E+001
 4.000000000E+001
 4.000000000E+001
 4.100000000E+001
 4.100000000E+001
 4.200000000E+001
 4.200000000E+001
 4.300000000E+001
 4.300000000E+001
 4.400000000E+001
 4.400000000E+001
 4.500000000E+001
 4.500000000E+001
 4.600000000E+001
 4.600000000E+001
 4.700000000E+001
 4.700000000E+001
 4.800000000E+001
 4.800000000E+001
 4.900000000E+001
 4.900000000E+001
 5.000000000E+001
 5.000000000E+001
 5.100000000E+001
 5.100000000E+001
 5.200000000E+001
 5.200000000E+001
 5.300000000E+001
 5.300000000E+001
 5.400000000E+001
 5.400000000E+001
 5.500000000E+001
 5.500000000E+001
 5.600000000E+001
 5.600000000E+001
 5.700000000E+001
 5.700000000E+001
 5.800000000E+001
 5.800000000E+001
 5.900000000E+001
 5.900000000E+001
 6.000000000E+001
 6.000000000E+001
 6.100000000E+001
 6.100000000E+001
 6.200000000E+001
 6.200000000E+001
 6.300000000E+001
 6.300000000E+001
 6.400000000E+001
 6.400000000E+001
 6.500000000E+001
 6.500000000E+001
 6.600000000E+001
 6.600000000E+001
 6.700000000E+001
 6.700000000E+001
 6.800000000E+001
 6.800000000E+001
 6.900000000E+001
 6.900000000E+001
 7.000000000E+001
 7.000000000E+001
 7.100000000E+001
 7.100000000E+001
 7.200000000E+001
 7.200000000E+001
 7.300000000E+001
 7.300000000E+001
 7.400000000E+001
 7.400000000E+001
 7.500000000E+001
 7.500000000E+001
 7.600000000E+001
 7.600000000E+001
 7.700000000E+001
 7.700000000E+001
 7.800000000E+001
 7.800000000E+001
 7.900000000E+001
 7.900000000E+001
 8.000000000E+001
 8.000000000E+001
 8.100000000E+001
 8.100000000E+001
 8.200000000E+001
 8.200000000E+001
 8.300000000E+001
 8.300000000E+001
 8.400000000E+001
 8.400000000E+001
 8.500000000E+001
 8.500000000E+001
 8.600000000E+001
 8.600000000E+001
 8.700000000E+001
 8.700000000E+001
 8.800000000E+001
 8.800000000E+001
 8.900000000E+001
 8.900000000E+001
 9.000000000E+001
 9.000000000E+001
 9.100000000E+001
 9.100000000E+001
 9.200000000E+001
 9.200000000E+001
 9.300000000E+001
 9.300000000E+001
 9.400000000E+001
 9.400000000E+001
 9.500000000E+001
 9.500000000E+001
 9.600000000E+001
 9.600000000E+001
 9.700000000E+001
 9.700000000E+001
 9.800000000E+001
 9.800000000E+001
 9.900000000E+001
 9.900000000E+001
 1.000000000E+002
 1.000000000E+002
 1.010000000E+002
 1.010000000E+002
 1 2 3 4
 4 3 5 6
 6 5 7 8
 8 7 9 10
 10 9 11 12
 12 11 13 14
 14 13 15 16
 16 15 17 18
 18 17 19 20
 20 19 21 22
 22 21 23 24
 24 23 25 26
 26 25 27 28
 28 27 29 30
 30 29 31 32
 32 31 33 34
 34 33 35 36
 36 35 37 38
 38 37 39 40
 40 39 41 42
 42 41 43 44
 44 43 45 46
 46 45 47 48
 48 47 49 50
 50 49 51 52
 52 51 53 54
 54 53 55 56
 56 55 57 58
 58 57 59 60
 60 59 61 62
 62 61 63 64
 64 63 65 66
 66 65 67 68
 68 67 69 70
 70 69 71 72
 72 71 73 74
 74 73 75 76
 76 75 77 78
 78 77 79 80
 80 79 81 82
 82 81 83 84
 84 83 85 86
 86 85 87 88
 88 87 89 90
 90 89 91 92
 92 91 93 94
 94 93 95 96
 96 95 97 98
 98 97 99 100
 100 99 101 102
 102 101 103 104
 104 103 105 106
 106 105 107 108
 108 107 109 110
 110 109 111 112
 112 111 113 114
 114 113 115 116
 116 115 117 118
 118 117 119 120
 120 119 121 122
 122 121 123 124
 124 123 125 126
 126 125 127 128
 128 127 129 130
 130 129 131 132
 132 131 133 134
 134 133 135 136
 136 135 137 138
 138 137 139 140
 140 139 141 142
 142 141 143 144
 144 143 145 146
 146 145 147 148
 148 147 149 150
 150 149 151 152
 152 151 153 154
 154 153 155 156
 156 155 157 158
 158 157 159 160
 160 159 161 162
 162 161 163 164
 164 163 165 166
 166 165 167 168
 168 167 169 170
 170 169 171 172
 172 171 173 174
 174 173 175 176
 176 175 177 178
 178 177 179 180
 180 179 181 182
 182 181 183 184
 184 183 185 186
 186 185 187 188
 188 187 189 190
 190 189 191 192
 192 191 193 194
 194 193 195 196
 196 195 197 198
 198 197 199 200
 200 199 201 202
 202 201 203 204
 1 3 2
 2 1 1
 2 3 3
 3 1 2
 3 3 4
 4 1 3
 4 3 5
 5 1 4
 5 3 6
 6 1 5
 6 3 7
 7 1 6
 7 3 8
 8 1 7
 8 3 9
 9 1 8
 9 3 10
 10 1 9
 10 3 11
 11 1 10
 11 3 12
 12 1 11
 12 3 13
 13 1 12
 13 3 14
 14 1 13
 14 3 15
 15 1 14
 15 3 16
 16 1 15
 16 3 17
 17 1 16
 17 3 18
 18 1 17
 18 3 19
 19 1 18
 19 3 20
 20 1 19
 20 3 21
 21 1 20
 21 3 22
 22 1 21
 22 3 23
 23 1 22
 23 3 24
 24 1 23
 24 3 25
 25 1 24
 25 3 26
 26 1 25
 26 3 27
 27 1 26
 27 3 28
 28 1 27
 28 3 29
 29 1 28
 29 3 30
 30 1 29
 30 3 31
 31 1 30
 31 3 32
 32 1 31
 32 3 33
 33 1 32
 33 3 34
 34 1 33
 34 3 35
 35 1 34
 35 3 36
 36 1 35
 36 3 37
 37 1 36
 37 3 38
 38 1 37
 38 3 39
 39 1 38
 39 3 40
 40 1 39
 40 3 41
 41 1 40
 41 3 42
 42 1 41
 42 3 43
 43 1 42
 43 3 44
 44 1 43
 44 3 45
 45 1 44
 45 3 46
 46 1 45
 46 3 47
 47 1 46
 47 3 48
 48 1 47
 48 3 49
 49 1 48
 49 3 50
 50 1 49
 50 3 51
 51 1 50
 51 3 52
 52 1 51
 52 3 53
 53 1 52
 53 3 54
 54 1 53
 54 3 55
 55 1 54
 55 3 56
 56 1 55
 56 3 57
 57 1 56
 57 3 58
 58 1 57
 58 3 59
 59 1 58
 59 3 60
 60 1 59
 60 3 61
 61 1 60
 61 3 62
 62 1 61
 62 3 63
 63 1 62
 63 3 64
 64 1 63
 64 3 65
 65 1 64
 65 3 66
 66 1 65
 66 3 67
 67 1 66
 67 3 68
 68 1 67
 68 3 69
 69 1 68
 69 3 70
 70 1 69
 70 3 71
 71 1 70
 71 3 72
 72 1 71
 72 3 73
 73 1 72
 73 3 74
 74 1 73
 74 3 75
 75 1 74
 75 3 76
 76 1 75
 76 3 77
 77 1 76
 77 3 78
 78 1 77
 78 3 79
 79 1 78
 79 3 80
 80 1 79
 80 3 81
 81 1 80
 81 3 82
 82 1 81
 82 3 83
 83 1 82
 83 3 84
 84 1 83
 84 3 85
 85 1 84
 85 3 86
 86 1 85
 86 3 87
 87 1 86
 87 3 88
 88 1 87
 88 3 89
 89 1 88
 89 3 90
 90 1 89
 90 3 91
 91 1 90
 91 3 92
 92 1 91
 92 3 93
 93 1 92
 93 3 94
 94 1 93
 94 3 95
 95 1 94
 95 3 96
 96 1 95
 96 3 97
 97 1 96
 97 3 98
 98 1 97
 98 3 99
 99 1 98
 99 3 100
 100 1 99
 100 3 101
 101 1 100
ZONE T="SWF"
 STRANDID=1, SOLUTIONTIME=300
 Nodes=204, Elements=101, ZONETYPE=FEQuadrilateral
 DATAPACKING=POINT
 FACENEIGHBORCONNECTIONS=200
 FACENEIGHBORMODE=LOCALONETOONE
 FEFACENEIGHBORSCOMPLETE=YES
 AUXDATA LengthUnits="METERS"
 AUXDATA TimeUnits="SECONDS"
 DT=(SINGLE )
 VARSHARELIST = ([1]=1)
 CONNECTIVITYSHAREZONE = 1
ZONE T="SWF"
 STRANDID=1, SOLUTIONTIME=3600
 Nodes=204, Elements=101, ZONETYPE=FEQuadrilateral
 DATAPACKING=POINT
 FACENEIGHBORCONNECTIONS=200
 FACENEIGHBORMODE=LOCALONETOONE
 FEFACENEIGHBORSCOMPLETE=YES
 AUXDATA LengthUnits="METERS"
 AUXDATA TimeUnits="SECONDS"
 DT=(SINGLE )
 VARSHARELIST = ([1]=1)
 CONNECTIVITYSHAREZONE = 1
